# This file is created by Advance/NanoLabo.
# Force-Field: M3GNet

      26  atoms

       3  atom types

 0.00000000e+00  5.62400207e+00  xlo xhi
 0.00000000e+00  4.87052866e+00  ylo yhi
 0.00000000e+00  4.18714052e+01  zlo zhi
-2.81200103e+00  0.00000000e+00  0.00000000e+00  xy xz yz

 Atoms

       1        1  1.406001e+00  8.117550e-01  2.667568e+01
       2        1  4.218002e+00  8.117550e-01  2.667568e+01
       3        1  0.000000e+00  3.247019e+00  2.667568e+01
       4        1  2.812001e+00  3.247019e+00  2.667568e+01
       5        1  0.000000e+00  1.623510e+00  2.437969e+01
       6        1  2.812001e+00  1.623510e+00  2.437969e+01
       7        1 -1.406001e+00  4.058774e+00  2.437969e+01
       8        1  1.406001e+00  4.058774e+00  2.437969e+01
       9        1  0.000000e+00  0.000000e+00  2.208370e+01
      10        1  4.218001e+00  2.435264e+00  2.208370e+01
      11        1  1.406001e+00  2.435264e+00  2.208370e+01
      12        1  2.812001e+00  0.000000e+00  2.208370e+01
      13        1  1.406001e+00  8.117550e-01  1.978771e+01  # 0 0 0
      14        1  4.218002e+00  8.117550e-01  1.978771e+01  # 0 0 0
      15        1  0.000000e+00  3.247019e+00  1.978771e+01  # 0 0 0
      16        1  2.812001e+00  3.247019e+00  1.978771e+01  # 0 0 0
      17        1  0.000000e+00  1.623510e+00  1.749172e+01  # 0 0 0
      18        1  2.812001e+00  1.623510e+00  1.749172e+01  # 0 0 0
      19        1 -1.406001e+00  4.058774e+00  1.749172e+01  # 0 0 0
      20        1  1.406001e+00  4.058774e+00  1.749172e+01  # 0 0 0
      21        1  0.000000e+00  0.000000e+00  1.519573e+01  # 0 0 0
      22        1  4.218001e+00  2.435264e+00  1.519573e+01  # 0 0 0
      23        1  1.406001e+00  2.435264e+00  1.519573e+01  # 0 0 0
      24        1  2.812001e+00  0.000000e+00  1.519573e+01  # 0 0 0
      25        2  1.406001e+00  8.117550e-01  2.853568e+01
      26        3  1.406001e+00  8.117550e-01  2.950467e+01

 Velocities

       1  0.000000e+00  0.000000e+00  0.000000e+00
       2  0.000000e+00  0.000000e+00  0.000000e+00
       3  0.000000e+00  0.000000e+00  0.000000e+00
       4  0.000000e+00  0.000000e+00  0.000000e+00
       5  0.000000e+00  0.000000e+00  0.000000e+00
       6  0.000000e+00  0.000000e+00  0.000000e+00
       7  0.000000e+00  0.000000e+00  0.000000e+00
       8  0.000000e+00  0.000000e+00  0.000000e+00
       9  0.000000e+00  0.000000e+00  0.000000e+00
      10  0.000000e+00  0.000000e+00  0.000000e+00
      11  0.000000e+00  0.000000e+00  0.000000e+00
      12  0.000000e+00  0.000000e+00  0.000000e+00
      13  0.000000e+00  0.000000e+00  0.000000e+00
      14  0.000000e+00  0.000000e+00  0.000000e+00
      15  0.000000e+00  0.000000e+00  0.000000e+00
      16  0.000000e+00  0.000000e+00  0.000000e+00
      17  0.000000e+00  0.000000e+00  0.000000e+00
      18  0.000000e+00  0.000000e+00  0.000000e+00
      19  0.000000e+00  0.000000e+00  0.000000e+00
      20  0.000000e+00  0.000000e+00  0.000000e+00
      21  0.000000e+00  0.000000e+00  0.000000e+00
      22  0.000000e+00  0.000000e+00  0.000000e+00
      23  0.000000e+00  0.000000e+00  0.000000e+00
      24  0.000000e+00  0.000000e+00  0.000000e+00
      25  0.000000e+00  0.000000e+00  0.000000e+00
      26  0.000000e+00  0.000000e+00  0.000000e+00

 Masses

       1  1.950780e+02 # Pt
       2  1.599940e+01 # O
       3  1.007940e+00 # H

